# Source     : all
# Name       : sampledSurface
# Cells      : 559600
# Volume     : 4.859558e-09
# Scale factor: 1.000000e+00
# Time       	volIntegrateU
1e-05        	3.136254e-11 1.535928e-14 8.255830e-21
2e-05        	6.363637e-11 2.215454e-14 2.687407e-20
3e-05        	9.590182e-11 2.612189e-14 2.737150e-20
4e-05        	1.279034e-10 2.834385e-14 2.937444e-20
5e-05        	1.595684e-10 2.980584e-14 3.025347e-20
6e-05        	1.908997e-10 3.085590e-14 3.118720e-20
7e-05        	2.219182e-10 3.170758e-14 3.176475e-20
8e-05        	2.526463e-10 3.243068e-14 3.220958e-20
9e-05        	2.831036e-10 3.309042e-14 3.257300e-20
0.0001       	3.133064e-10 3.369664e-14 3.288468e-20
0.00011      	3.432684e-10 3.425279e-14 3.318590e-20
0.00012      	3.730010e-10 3.476871e-14 3.341869e-20
0.00013      	4.025142e-10 3.525316e-14 3.363033e-20
0.00014      	4.318167e-10 3.570972e-14 3.385406e-20
0.00015      	4.609162e-10 3.614534e-14 3.403214e-20
0.00016      	4.898196e-10 3.657339e-14 3.421274e-20
0.00017      	5.185332e-10 3.699326e-14 3.437864e-20
0.00018      	5.470625e-10 3.740486e-14 3.459530e-20
0.00019      	5.754129e-10 3.780106e-14 3.473331e-20
0.0002       	6.035890e-10 3.820070e-14 3.490880e-20
0.00021      	6.315953e-10 3.853048e-14 3.504706e-20
0.00022      	6.594358e-10 3.888511e-14 3.520652e-20
0.00023      	6.871144e-10 3.923049e-14 3.531139e-20
0.00024      	7.146345e-10 3.956280e-14 3.545060e-20
0.00025      	7.419995e-10 3.991026e-14 3.563599e-20
0.00026      	7.692126e-10 4.022704e-14 3.582702e-20
0.00027      	7.962766e-10 4.054156e-14 3.600956e-20
0.00028      	8.231943e-10 4.086099e-14 3.616288e-20
0.00029      	8.499683e-10 4.118162e-14 3.634616e-20
0.0003       	8.766010e-10 4.150433e-14 3.650609e-20
0.00031      	9.030947e-10 4.183744e-14 3.669445e-20
0.00032      	9.294517e-10 4.217156e-14 3.685870e-20
0.00033      	9.556740e-10 4.252089e-14 3.704257e-20
0.00034      	9.817636e-10 4.287201e-14 3.722013e-20
0.00035      	1.007722e-09 4.324210e-14 3.743042e-20
0.00036      	1.033552e-09 4.362923e-14 3.758854e-20
0.00037      	1.059255e-09 4.398047e-14 3.774158e-20
0.00038      	1.084831e-09 4.433259e-14 3.793982e-20
0.00039      	1.110284e-09 4.469161e-14 3.808424e-20
0.0004       	1.135613e-09 4.500463e-14 3.822187e-20
0.00041      	1.160822e-09 4.536590e-14 3.835098e-20
0.00042      	1.185910e-09 4.575225e-14 3.847768e-20
0.00043      	1.210880e-09 4.607548e-14 3.858436e-20
0.00044      	1.235732e-09 4.644828e-14 3.869696e-20
0.00045      	1.260467e-09 4.682450e-14 3.881252e-20
0.00046      	1.285088e-09 4.722426e-14 3.889673e-20
0.00047      	1.309594e-09 4.766266e-14 3.897486e-20
0.00048      	1.333987e-09 4.810821e-14 3.901823e-20
0.00049      	1.358267e-09 4.856108e-14 3.907316e-20
0.0005       	1.382436e-09 4.904022e-14 3.909294e-20
0.00051      	1.406495e-09 4.953116e-14 3.912045e-20
0.00052      	1.430444e-09 5.004151e-14 3.909339e-20
0.00053      	1.454284e-09 5.056512e-14 3.912201e-20
0.00054      	1.478016e-09 5.112144e-14 3.906884e-20
0.00055      	1.501641e-09 5.169535e-14 3.903948e-20
0.00056      	1.525158e-09 5.228865e-14 3.891192e-20
0.00057      	1.548570e-09 5.288001e-14 3.886542e-20
0.00058      	1.571876e-09 5.348843e-14 3.872845e-20
0.00059      	1.595077e-09 5.413269e-14 3.862084e-20
0.0006       	1.618174e-09 5.479550e-14 3.840562e-20
0.00061      	1.641167e-09 5.548436e-14 3.825279e-20
0.00062      	1.664057e-09 5.619941e-14 3.799990e-20
0.00063      	1.686843e-09 5.688974e-14 3.782280e-20
0.00064      	1.709527e-09 5.760884e-14 3.752414e-20
0.00065      	1.732110e-09 5.839104e-14 3.731568e-20
0.00066      	1.754590e-09 5.924137e-14 3.694548e-20
0.00067      	1.776970e-09 6.010915e-14 3.669181e-20
0.00068      	1.799248e-09 6.088840e-14 3.629567e-20
0.00069      	1.821426e-09 6.171311e-14 3.601171e-20
0.0007       	1.843504e-09 6.259730e-14 3.558563e-20
0.00071      	1.865481e-09 6.354876e-14 3.526800e-20
0.00072      	1.887359e-09 6.453839e-14 3.476879e-20
0.00073      	1.909138e-09 6.549116e-14 3.439314e-20
0.00074      	1.930818e-09 6.648757e-14 3.384379e-20
0.00075      	1.952398e-09 6.753205e-14 3.342526e-20
0.00076      	1.973880e-09 6.861755e-14 3.287288e-20
0.00077      	1.995263e-09 6.973312e-14 3.241772e-20
0.00078      	2.016548e-09 7.086101e-14 3.183944e-20
0.00079      	2.037735e-09 7.203018e-14 3.135859e-20
0.0008       	2.058824e-09 7.348165e-14 3.055426e-20
0.00081      	2.079815e-09 7.476638e-14 2.994059e-20
0.00082      	2.100708e-09 7.603436e-14 2.928293e-20
0.00083      	2.121504e-09 7.736245e-14 2.838475e-20
0.00084      	2.142203e-09 7.882546e-14 2.760489e-20
0.00085      	2.162804e-09 8.007610e-14 2.708790e-20
0.00086      	2.183307e-09 8.146324e-14 2.645129e-20
0.00087      	2.203714e-09 8.287354e-14 2.573405e-20
0.00088      	2.224024e-09 8.432968e-14 2.488411e-20
0.00089      	2.244236e-09 8.563544e-14 2.392514e-20
0.0009       	2.264352e-09 8.702714e-14 2.322263e-20
0.00091      	2.284371e-09 8.832691e-14 2.240371e-20
0.00092      	2.304294e-09 8.966100e-14 2.167982e-20
0.00093      	2.324119e-09 9.103741e-14 2.069732e-20
0.00094      	2.343849e-09 9.252367e-14 1.935506e-20
0.00095      	2.363481e-09 9.417853e-14 1.785430e-20
0.00096      	2.383018e-09 9.610206e-14 1.666304e-20
0.00097      	2.402458e-09 9.785154e-14 1.542103e-20
0.00098      	2.421801e-09 9.962509e-14 1.433373e-20
0.00099      	2.441049e-09 1.014457e-13 1.304155e-20
0.001        	2.460200e-09 1.033117e-13 1.182056e-20
0.00101      	2.479255e-09 1.052269e-13 1.030511e-20
0.00102      	2.498213e-09 1.071745e-13 9.022716e-21
0.00103      	2.517076e-09 1.092234e-13 7.498303e-21
0.00104      	2.535843e-09 1.115681e-13 5.931719e-21
0.00105      	2.554514e-09 1.135589e-13 4.307003e-21
0.00106      	2.573089e-09 1.153306e-13 2.628914e-21
0.00107      	2.591568e-09 1.172509e-13 7.537832e-22
0.00108      	2.609951e-09 1.190148e-13 -9.461822e-22
0.00109      	2.628238e-09 1.208543e-13 -2.760557e-21
0.0011       	2.646430e-09 1.230615e-13 -4.695233e-21
0.00111      	2.664526e-09 1.253274e-13 -6.769634e-21
0.00112      	2.682527e-09 1.274546e-13 -8.870623e-21
0.00113      	2.700432e-09 1.299136e-13 -1.116002e-20
0.00114      	2.718241e-09 1.324505e-13 -1.354746e-20
0.00115      	2.735956e-09 1.350476e-13 -1.592370e-20
0.00116      	2.753575e-09 1.376553e-13 -1.840264e-20
0.00117      	2.771099e-09 1.402873e-13 -2.116357e-20
0.00118      	2.788528e-09 1.430492e-13 -2.377905e-20
0.00119      	2.805861e-09 1.457599e-13 -2.667515e-20
0.0012       	2.823100e-09 1.483443e-13 -2.903119e-20
0.00121      	2.840244e-09 1.509663e-13 -3.305975e-20
0.00122      	2.857293e-09 1.538297e-13 -3.665449e-20
0.00123      	2.874248e-09 1.568562e-13 -4.032733e-20
0.00124      	2.891108e-09 1.597277e-13 -4.366566e-20
0.00125      	2.907873e-09 1.624100e-13 -4.722222e-20
0.00126      	2.924544e-09 1.651475e-13 -5.098810e-20
0.00127      	2.941121e-09 1.679091e-13 -5.508589e-20
0.00128      	2.957604e-09 1.707560e-13 -5.925917e-20
0.00129      	2.973993e-09 1.736929e-13 -6.366659e-20
0.0013       	2.990288e-09 1.766865e-13 -6.821387e-20
0.00131      	3.006489e-09 1.797530e-13 -7.295306e-20
0.00132      	3.022596e-09 1.828860e-13 -7.787804e-20
0.00133      	3.038611e-09 1.861197e-13 -8.294869e-20
0.00134      	3.054531e-09 1.891661e-13 -8.842458e-20
0.00135      	3.070359e-09 1.922395e-13 -9.384799e-20
0.00136      	3.086093e-09 1.951013e-13 -9.973823e-20
0.00137      	3.101734e-09 1.978257e-13 -1.054156e-19
0.00138      	3.117283e-09 2.008303e-13 -1.116269e-19
0.00139      	3.132739e-09 2.039632e-13 -1.180395e-19
0.0014       	3.148102e-09 2.073784e-13 -1.246777e-19
0.00141      	3.163373e-09 2.109564e-13 -1.319447e-19
0.00142      	3.178552e-09 2.146198e-13 -1.385404e-19
0.00143      	3.193639e-09 2.182777e-13 -1.447970e-19
0.00144      	3.208634e-09 2.218969e-13 -1.519433e-19
0.00145      	3.223537e-09 2.254634e-13 -1.597155e-19
0.00146      	3.238349e-09 2.289854e-13 -1.676610e-19
0.00147      	3.253070e-09 2.323881e-13 -1.758169e-19
0.00148      	3.267699e-09 2.358327e-13 -1.840962e-19
0.00149      	3.282238e-09 2.394605e-13 -1.926088e-19
0.0015       	3.296685e-09 2.433754e-13 -2.013460e-19
0.00151      	3.311042e-09 2.478158e-13 -2.103240e-19
0.00152      	3.325308e-09 2.526440e-13 -2.194331e-19
0.00153      	3.339484e-09 2.572852e-13 -2.288127e-19
0.00154      	3.353570e-09 2.620170e-13 -2.383970e-19
0.00155      	3.367566e-09 2.654511e-13 -2.482207e-19
0.00156      	3.381473e-09 2.691017e-13 -2.582356e-19
0.00157      	3.395290e-09 2.731810e-13 -2.684539e-19
0.00158      	3.409017e-09 2.770558e-13 -2.788975e-19
0.00159      	3.422656e-09 2.813185e-13 -2.897131e-19
0.0016       	3.436206e-09 2.860198e-13 -3.005024e-19
0.00161      	3.449667e-09 2.905787e-13 -3.117679e-19
0.00162      	3.463040e-09 2.953548e-13 -3.228160e-19
0.00163      	3.476324e-09 3.000397e-13 -3.343913e-19
0.00164      	3.489520e-09 3.046098e-13 -3.460640e-19
0.00165      	3.502628e-09 3.090623e-13 -3.580339e-19
0.00166      	3.515649e-09 3.136050e-13 -3.701206e-19
0.00167      	3.528582e-09 3.184446e-13 -3.824818e-19
0.00168      	3.541428e-09 3.231301e-13 -3.949472e-19
0.00169      	3.554187e-09 3.276597e-13 -4.077067e-19
0.0017       	3.566859e-09 3.323455e-13 -4.205825e-19
0.00171      	3.579445e-09 3.371938e-13 -4.336981e-19
0.00172      	3.591945e-09 3.422257e-13 -4.469030e-19
0.00173      	3.604359e-09 3.474165e-13 -4.603495e-19
0.00174      	3.616687e-09 3.525199e-13 -4.738744e-19
0.00175      	3.628929e-09 3.576459e-13 -4.876212e-19
0.00176      	3.641086e-09 3.626550e-13 -5.014329e-19
0.00177      	3.653158e-09 3.674408e-13 -5.154639e-19
0.00178      	3.665145e-09 3.724123e-13 -5.295901e-19
0.00179      	3.677048e-09 3.772115e-13 -5.438614e-19
0.0018       	3.688867e-09 3.822389e-13 -5.582080e-19
0.00181      	3.700601e-09 3.873494e-13 -5.727047e-19
0.00182      	3.712252e-09 3.924826e-13 -5.874389e-19
0.00183      	3.723819e-09 3.976714e-13 -6.022778e-19
0.00184      	3.735304e-09 4.028545e-13 -6.171984e-19
0.00185      	3.746705e-09 4.080979e-13 -6.323582e-19
0.00186      	3.758023e-09 4.136994e-13 -6.476311e-19
0.00187      	3.769260e-09 4.193200e-13 -6.629896e-19
0.00188      	3.780414e-09 4.249352e-13 -6.783891e-19
0.00189      	3.791487e-09 4.305597e-13 -6.939066e-19
0.0019       	3.802478e-09 4.362515e-13 -7.100276e-19
0.00191      	3.813388e-09 4.420837e-13 -7.262908e-19
0.00192      	3.824217e-09 4.476628e-13 -7.424091e-19
0.00193      	3.834965e-09 4.532375e-13 -7.582270e-19
0.00194      	3.845634e-09 4.588515e-13 -7.744543e-19
0.00195      	3.856222e-09 4.645850e-13 -7.909389e-19
0.00196      	3.866731e-09 4.705200e-13 -8.074169e-19
0.00197      	3.877161e-09 4.761755e-13 -8.240933e-19
0.00198      	3.887511e-09 4.817131e-13 -8.407858e-19
0.00199      	3.897783e-09 4.872138e-13 -8.577470e-19
0.002        	3.907977e-09 4.926072e-13 -8.745732e-19
0.00201      	3.918093e-09 4.982367e-13 -8.916337e-19
0.00202      	3.928132e-09 5.039064e-13 -9.087243e-19
0.00203      	3.938093e-09 5.095976e-13 -9.259947e-19
0.00204      	3.947977e-09 5.152847e-13 -9.433078e-19
0.00205      	3.957785e-09 5.210770e-13 -9.606873e-19
0.00206      	3.967516e-09 5.268611e-13 -9.775380e-19
0.00207      	3.977172e-09 5.325333e-13 -9.949990e-19
0.00208      	3.986752e-09 5.382817e-13 -1.013488e-18
0.00209      	3.996257e-09 5.441436e-13 -1.031053e-18
0.0021       	4.005687e-09 5.499892e-13 -1.048510e-18
0.00211      	4.015043e-09 5.557721e-13 -1.066324e-18
0.00212      	4.024324e-09 5.615122e-13 -1.084407e-18
0.00213      	4.033532e-09 5.673557e-13 -1.102784e-18
0.00214      	4.042667e-09 5.732290e-13 -1.120155e-18
0.00215      	4.051729e-09 5.791131e-13 -1.138206e-18
0.00216      	4.060718e-09 5.849993e-13 -1.155963e-18
0.00217      	4.069635e-09 5.908822e-13 -1.173971e-18
0.00218      	4.078480e-09 5.968740e-13 -1.192312e-18
0.00219      	4.087253e-09 6.027775e-13 -1.211212e-18
0.0022       	4.095955e-09 6.086360e-13 -1.230892e-18
0.00221      	4.104587e-09 6.144408e-13 -1.250186e-18
0.00222      	4.113148e-09 6.202050e-13 -1.269201e-18
0.00223      	4.121639e-09 6.259111e-13 -1.288195e-18
0.00224      	4.130060e-09 6.316316e-13 -1.307090e-18
0.00225      	4.138412e-09 6.373053e-13 -1.326167e-18
0.00226      	4.146695e-09 6.430434e-13 -1.345197e-18
0.00227      	4.154910e-09 6.487011e-13 -1.364416e-18
0.00228      	4.163056e-09 6.542066e-13 -1.383583e-18
0.00229      	4.171134e-09 6.595664e-13 -1.402930e-18
0.0023       	4.179145e-09 6.647245e-13 -1.422257e-18
0.00231      	4.187089e-09 6.698193e-13 -1.441777e-18
0.00232      	4.194966e-09 6.748705e-13 -1.461269e-18
0.00233      	4.202776e-09 6.798351e-13 -1.480895e-18
0.00234      	4.210521e-09 6.847615e-13 -1.500494e-18
0.00235      	4.218200e-09 6.895775e-13 -1.520325e-18
0.00236      	4.225813e-09 6.943427e-13 -1.540294e-18
0.00237      	4.233362e-09 6.990488e-13 -1.560493e-18
0.00238      	4.240846e-09 7.037033e-13 -1.580666e-18
0.00239      	4.248265e-09 7.082444e-13 -1.601018e-18
0.0024       	4.255621e-09 7.126806e-13 -1.621289e-18
0.00241      	4.262913e-09 7.170159e-13 -1.641767e-18
0.00242      	4.270141e-09 7.211660e-13 -1.662180e-18
0.00243      	4.277307e-09 7.252092e-13 -1.682783e-18
0.00244      	4.284411e-09 7.290819e-13 -1.703307e-18
0.00245      	4.291452e-09 7.328698e-13 -1.723989e-18
0.00246      	4.298432e-09 7.365684e-13 -1.744749e-18
0.00247      	4.305350e-09 7.401528e-13 -1.765726e-18
0.00248      	4.312207e-09 7.436169e-13 -1.786647e-18
0.00249      	4.319004e-09 7.469445e-13 -1.807873e-18
0.0025       	4.325740e-09 7.502354e-13 -1.829021e-18
0.00251      	4.332416e-09 7.534100e-13 -1.850475e-18
0.00252      	4.339032e-09 7.564918e-13 -1.871838e-18
0.00253      	4.345590e-09 7.592696e-13 -1.893462e-18
0.00254      	4.352088e-09 7.618801e-13 -1.914979e-18
0.00255      	4.358527e-09 7.643032e-13 -1.936742e-18
0.00256      	4.364909e-09 7.663155e-13 -1.958389e-18
0.00257      	4.371232e-09 7.682792e-13 -1.980273e-18
0.00258      	4.377498e-09 7.701957e-13 -2.002005e-18
0.00259      	4.383707e-09 7.720635e-13 -2.023993e-18
0.0026       	4.389859e-09 7.737307e-13 -2.045833e-18
0.00261      	4.395955e-09 7.752159e-13 -2.067917e-18
0.00262      	4.401995e-09 7.765186e-13 -2.089820e-18
0.00263      	4.407979e-09 7.776367e-13 -2.111961e-18
0.00264      	4.413908e-09 7.785601e-13 -2.133921e-18
0.00265      	4.419781e-09 7.792838e-13 -2.156113e-18
0.00266      	4.425600e-09 7.798211e-13 -2.178103e-18
0.00267      	4.431365e-09 7.801702e-13 -2.200320e-18
0.00268      	4.437075e-09 7.803186e-13 -2.222350e-18
0.00269      	4.442733e-09 7.802640e-13 -2.244605e-18
0.0027       	4.448337e-09 7.799788e-13 -2.266651e-18
0.00271      	4.453889e-09 7.794575e-13 -2.288937e-18
0.00272      	4.459388e-09 7.786993e-13 -2.310994e-18
0.00273      	4.464835e-09 7.777245e-13 -2.333270e-18
0.00274      	4.470231e-09 7.765254e-13 -2.355314e-18
0.00275      	4.475576e-09 7.750853e-13 -2.377586e-18
0.00276      	4.480869e-09 7.734092e-13 -2.399618e-18
0.00277      	4.486113e-09 7.715018e-13 -2.421884e-18
0.00278      	4.491306e-09 7.693350e-13 -2.443913e-18
0.00279      	4.496449e-09 7.669409e-13 -2.466169e-18
0.0028       	4.501543e-09 7.642928e-13 -2.488188e-18
0.00281      	4.506588e-09 7.613808e-13 -2.510440e-18
0.00282      	4.511584e-09 7.582063e-13 -2.532445e-18
0.00283      	4.516532e-09 7.547693e-13 -2.554614e-18
0.00284      	4.521432e-09 7.511301e-13 -2.576692e-18
0.00285      	4.526284e-09 7.472407e-13 -2.598961e-18
0.00286      	4.531090e-09 7.430728e-13 -2.621065e-18
0.00287      	4.535848e-09 7.386132e-13 -2.643410e-18
0.00288      	4.540561e-09 7.339079e-13 -2.665586e-18
0.00289      	4.545227e-09 7.289479e-13 -2.687973e-18
0.0029       	4.549847e-09 7.237215e-13 -2.710186e-18
0.00291      	4.554422e-09 7.182441e-13 -2.732527e-18
0.00292      	4.558952e-09 7.125278e-13 -2.754625e-18
0.00293      	4.563437e-09 7.066008e-13 -2.776863e-18
0.00294      	4.567878e-09 7.003680e-13 -2.798901e-18
0.00295      	4.572276e-09 6.938437e-13 -2.821092e-18
0.00296      	4.576630e-09 6.870326e-13 -2.843155e-18
0.00297      	4.580941e-09 6.798829e-13 -2.865246e-18
0.00298      	4.585209e-09 6.725121e-13 -2.887347e-18
0.00299      	4.589434e-09 6.648615e-13 -2.909532e-18
0.003        	4.593617e-09 6.569299e-13 -2.931649e-18
0.00301      	4.597758e-09 6.487226e-13 -2.953787e-18
0.00302      	4.601858e-09 6.402539e-13 -2.975841e-18
0.00303      	4.605917e-09 6.315225e-13 -2.997885e-18
0.00304      	4.609934e-09 6.225177e-13 -3.019765e-18
0.00305      	4.613910e-09 6.132711e-13 -3.041654e-18
0.00306      	4.617847e-09 6.037512e-13 -3.063460e-18
0.00307      	4.621744e-09 5.939579e-13 -3.085231e-18
0.00308      	4.625601e-09 5.839110e-13 -3.106933e-18
0.00309      	4.629420e-09 5.736108e-13 -3.128512e-18
0.0031       	4.633199e-09 5.630634e-13 -3.150119e-18
0.00311      	4.636941e-09 5.522707e-13 -3.171486e-18
0.00312      	4.640644e-09 5.412417e-13 -3.193023e-18
0.00313      	4.644309e-09 5.299587e-13 -3.214117e-18
0.00314      	4.647936e-09 5.184647e-13 -3.235567e-18
0.00315      	4.651527e-09 5.067388e-13 -3.256448e-18
0.00316      	4.655080e-09 4.947804e-13 -3.277709e-18
0.00317      	4.658597e-09 4.825759e-13 -3.298393e-18
0.00318      	4.662078e-09 4.701677e-13 -3.319549e-18
0.00319      	4.665523e-09 4.575312e-13 -3.340145e-18
0.0032       	4.668932e-09 4.446957e-13 -3.361125e-18
0.00321      	4.672305e-09 4.316534e-13 -3.381659e-18
0.00322      	4.675644e-09 4.183889e-13 -3.402563e-18
0.00323      	4.678948e-09 4.049427e-13 -3.422998e-18
0.00324      	4.682217e-09 3.913259e-13 -3.443780e-18
0.00325      	4.685453e-09 3.775472e-13 -3.464074e-18
0.00326      	4.688654e-09 3.635953e-13 -3.484708e-18
0.00327      	4.691822e-09 3.495023e-13 -3.504838e-18
0.00328      	4.694956e-09 3.352629e-13 -3.525283e-18
0.00329      	4.698058e-09 3.208923e-13 -3.545225e-18
0.0033       	4.701127e-09 3.064050e-13 -3.565503e-18
0.00331      	4.704164e-09 2.917871e-13 -3.585218e-18
0.00332      	4.707168e-09 2.770463e-13 -3.605301e-18
0.00333      	4.710141e-09 2.621922e-13 -3.624873e-18
0.00334      	4.713082e-09 2.472390e-13 -3.644688e-18
0.00335      	4.715992e-09 2.321905e-13 -3.663990e-18
0.00336      	4.718870e-09 2.170476e-13 -3.683691e-18
0.00337      	4.721718e-09 2.018262e-13 -3.702797e-18
0.00338      	4.724536e-09 1.865479e-13 -3.722311e-18
0.00339      	4.727323e-09 1.712133e-13 -3.741101e-18
0.0034       	4.730081e-09 1.558408e-13 -3.760302e-18
0.00341      	4.732809e-09 1.404358e-13 -3.778891e-18
0.00342      	4.735507e-09 1.250025e-13 -3.797969e-18
0.00343      	4.738176e-09 1.095562e-13 -3.816349e-18
0.00344      	4.740817e-09 9.410259e-14 -3.835263e-18
0.00345      	4.743428e-09 7.865342e-14 -3.853435e-18
0.00346      	4.746012e-09 6.322093e-14 -3.872147e-18
0.00347      	4.748567e-09 4.781227e-14 -3.890077e-18
0.00348      	4.751095e-09 3.243822e-14 -3.908545e-18
0.00349      	4.753594e-09 1.709383e-14 -3.926165e-18
0.0035       	4.756067e-09 1.804972e-15 -3.944467e-18
0.00351      	4.758513e-09 -1.341881e-14 -3.961883e-18
0.00352      	4.760932e-09 -2.857349e-14 -3.980041e-18
0.00353      	4.763325e-09 -4.365026e-14 -3.997215e-18
0.00354      	4.765691e-09 -5.862703e-14 -4.015126e-18
0.00355      	4.768031e-09 -7.346106e-14 -4.032084e-18
0.00356      	4.770345e-09 -8.820890e-14 -4.049870e-18
0.00357      	4.772633e-09 -1.028487e-13 -4.066613e-18
0.00358      	4.774897e-09 -1.173561e-13 -4.084184e-18
0.00359      	4.777135e-09 -1.317300e-13 -4.100928e-18
0.0036       	4.779349e-09 -1.459499e-13 -4.118517e-18
0.00361      	4.781538e-09 -1.600376e-13 -4.135085e-18
0.00362      	4.783703e-09 -1.739594e-13 -4.152538e-18
0.00363      	4.785843e-09 -1.877214e-13 -4.168954e-18
0.00364      	4.787960e-09 -2.012999e-13 -4.186283e-18
0.00365      	4.790053e-09 -2.147144e-13 -4.202522e-18
0.00366      	4.792122e-09 -2.279353e-13 -4.219719e-18
0.00367      	4.794168e-09 -2.409640e-13 -4.235804e-18
0.00368      	4.796191e-09 -2.537915e-13 -4.252859e-18
0.00369      	4.798191e-09 -2.664150e-13 -4.268786e-18
0.0037       	4.800169e-09 -2.788038e-13 -4.285686e-18
0.00371      	4.802124e-09 -2.909867e-13 -4.301455e-18
0.00372      	4.804057e-09 -3.029217e-13 -4.318205e-18
0.00373      	4.805969e-09 -3.146377e-13 -4.333821e-18
0.00374      	4.807858e-09 -3.261197e-13 -4.350429e-18
0.00375      	4.809726e-09 -3.373766e-13 -4.365881e-18
0.00376      	4.811572e-09 -3.483821e-13 -4.382346e-18
0.00377      	4.813398e-09 -3.591503e-13 -4.397626e-18
0.00378      	4.815203e-09 -3.696734e-13 -4.413940e-18
0.00379      	4.816987e-09 -3.799548e-13 -4.429078e-18
0.0038       	4.818750e-09 -3.900038e-13 -4.445257e-18
0.00381      	4.820493e-09 -3.998011e-13 -4.460219e-18
0.00382      	4.822216e-09 -4.093455e-13 -4.476222e-18
0.00383      	4.823919e-09 -4.186328e-13 -4.491089e-18
0.00384      	4.825603e-09 -4.276770e-13 -4.506926e-18
0.00385      	4.827267e-09 -4.364617e-13 -4.521638e-18
0.00386      	4.828911e-09 -4.450079e-13 -4.537313e-18
0.00387      	4.830537e-09 -4.532981e-13 -4.552069e-18
0.00388      	4.832143e-09 -4.613354e-13 -4.567607e-18
0.00389      	4.833731e-09 -4.691225e-13 -4.582190e-18
0.0039       	4.835300e-09 -4.766922e-13 -4.597593e-18
0.00391      	4.836851e-09 -4.840112e-13 -4.612015e-18
0.00392      	4.838384e-09 -4.911014e-13 -4.627211e-18
0.00393      	4.839899e-09 -4.979488e-13 -4.641446e-18
0.00394      	4.841396e-09 -5.045753e-13 -4.656830e-18
0.00395      	4.842875e-09 -5.109850e-13 -4.670656e-18
0.00396      	4.844337e-09 -5.171774e-13 -4.685525e-18
0.00397      	4.845782e-09 -5.231497e-13 -4.699588e-18
0.00398      	4.847209e-09 -5.289279e-13 -4.714685e-18
0.00399      	4.848620e-09 -5.345056e-13 -4.728355e-18
0.004        	4.850014e-09 -5.398820e-13 -4.743294e-18
0.00401      	4.851391e-09 -5.450755e-13 -4.756885e-18
0.00402      	4.852752e-09 -5.500737e-13 -4.771660e-18
0.00403      	4.854097e-09 -5.549034e-13 -4.785133e-18
0.00404      	4.855425e-09 -5.595685e-13 -4.799846e-18
0.00405      	4.856738e-09 -5.640830e-13 -4.813222e-18
0.00406      	4.858035e-09 -5.684444e-13 -4.827847e-18
0.00407      	4.859317e-09 -5.726702e-13 -4.841116e-18
0.00408      	4.860583e-09 -5.767646e-13 -4.855702e-18
0.00409      	4.861833e-09 -5.807409e-13 -4.868860e-18
0.0041       	4.863069e-09 -5.845942e-13 -4.883348e-18
0.00411      	4.864290e-09 -5.883614e-13 -4.896386e-18
0.00412      	4.865496e-09 -5.920230e-13 -4.910806e-18
0.00413      	4.866687e-09 -5.956123e-13 -4.923755e-18
0.00414      	4.867864e-09 -5.991599e-13 -4.938069e-18
0.00415      	4.869026e-09 -6.026566e-13 -4.950877e-18
0.00416      	4.870175e-09 -6.061042e-13 -4.965158e-18
0.00417      	4.871309e-09 -6.095233e-13 -4.977835e-18
0.00418      	4.872429e-09 -6.129049e-13 -4.992056e-18
0.00419      	4.873536e-09 -6.162803e-13 -5.004569e-18
0.0042       	4.874629e-09 -6.196396e-13 -5.018757e-18
0.00421      	4.875709e-09 -6.230129e-13 -5.031156e-18
0.00422      	4.876775e-09 -6.263914e-13 -5.045236e-18
0.00423      	4.877829e-09 -6.298053e-13 -5.057561e-18
0.00424      	4.878869e-09 -6.332441e-13 -5.071570e-18
0.00425      	4.879896e-09 -6.367389e-13 -5.083797e-18
0.00426      	4.880911e-09 -6.402808e-13 -5.097729e-18
0.00427      	4.881913e-09 -6.438993e-13 -5.109864e-18
0.00428      	4.882902e-09 -6.475842e-13 -5.123729e-18
0.00429      	4.883879e-09 -6.513699e-13 -5.135767e-18
0.0043       	4.884845e-09 -6.552473e-13 -5.149591e-18
0.00431      	4.885798e-09 -6.592251e-13 -5.161549e-18
0.00432      	4.886740e-09 -6.633071e-13 -5.175255e-18
0.00433      	4.887669e-09 -6.675300e-13 -5.187152e-18
0.00434      	4.888587e-09 -6.718692e-13 -5.200796e-18
0.00435      	4.889494e-09 -6.763670e-13 -5.212605e-18
0.00436      	4.890389e-09 -6.809805e-13 -5.226232e-18
0.00437      	4.891272e-09 -6.857341e-13 -5.237983e-18
0.00438      	4.892145e-09 -6.906151e-13 -5.251496e-18
0.00439      	4.893006e-09 -6.956788e-13 -5.263202e-18
0.0044       	4.893856e-09 -7.009191e-13 -5.276672e-18
0.00441      	4.894696e-09 -7.063675e-13 -5.288296e-18
0.00442      	4.895525e-09 -7.120095e-13 -5.301731e-18
0.00443      	4.896343e-09 -7.178267e-13 -5.313307e-18
0.00444      	4.897151e-09 -7.238233e-13 -5.326599e-18
0.00445      	4.897949e-09 -7.300315e-13 -5.338256e-18
0.00446      	4.898736e-09 -7.364281e-13 -5.351503e-18
0.00447      	4.899514e-09 -7.430302e-13 -5.362774e-18
0.00448      	4.900281e-09 -7.498173e-13 -5.376032e-18
0.00449      	4.901039e-09 -7.568205e-13 -5.387484e-18
0.0045       	4.901787e-09 -7.640132e-13 -5.400685e-18
0.00451      	4.902526e-09 -7.714247e-13 -5.412040e-18
0.00452      	4.903255e-09 -7.790274e-13 -5.425175e-18
0.00453      	4.903974e-09 -7.868449e-13 -5.436473e-18
0.00454      	4.904685e-09 -7.948605e-13 -5.449617e-18
0.00455      	4.905386e-09 -8.030669e-13 -5.460834e-18
0.00456      	4.906078e-09 -8.114501e-13 -5.473817e-18
0.00457      	4.906760e-09 -8.200185e-13 -5.484985e-18
0.00458      	4.907434e-09 -8.287779e-13 -5.497926e-18
0.00459      	4.908099e-09 -8.377503e-13 -5.509037e-18
0.0046       	4.908756e-09 -8.469023e-13 -5.522028e-18
0.00461      	4.909404e-09 -8.562535e-13 -5.533007e-18
0.00462      	4.910043e-09 -8.657569e-13 -5.545946e-18
0.00463      	4.910674e-09 -8.754404e-13 -5.556893e-18
0.00464      	4.911296e-09 -8.852706e-13 -5.569802e-18
0.00465      	4.911911e-09 -8.952683e-13 -5.580693e-18
0.00466      	4.912517e-09 -9.053939e-13 -5.593580e-18
0.00467      	4.913116e-09 -9.156714e-13 -5.604451e-18
0.00468      	4.913706e-09 -9.260670e-13 -5.617306e-18
0.00469      	4.914289e-09 -9.365979e-13 -5.628093e-18
0.0047       	4.914864e-09 -9.472248e-13 -5.640877e-18
0.00471      	4.915432e-09 -9.579684e-13 -5.651595e-18
0.00472      	4.915991e-09 -9.687856e-13 -5.664351e-18
0.00473      	4.916544e-09 -9.797005e-13 -5.674982e-18
0.00474      	4.917089e-09 -9.906700e-13 -5.687869e-18
0.00475      	4.917627e-09 -1.001713e-12 -5.698428e-18
0.00476      	4.918157e-09 -1.012789e-12 -5.711329e-18
0.00477      	4.918681e-09 -1.023912e-12 -5.721774e-18
0.00478      	4.919197e-09 -1.035050e-12 -5.734741e-18
0.00479      	4.919707e-09 -1.046208e-12 -5.745001e-18
0.0048       	4.920210e-09 -1.057359e-12 -5.758003e-18
0.00481      	4.920706e-09 -1.068496e-12 -5.767945e-18
0.00482      	4.921195e-09 -1.079618e-12 -5.780862e-18
0.00483      	4.921678e-09 -1.090694e-12 -5.790643e-18
0.00484      	4.922154e-09 -1.101722e-12 -5.803707e-18
0.00485      	4.922624e-09 -1.112685e-12 -5.813182e-18
0.00486      	4.923087e-09 -1.123580e-12 -5.826333e-18
0.00487      	4.923545e-09 -1.134369e-12 -5.835493e-18
0.00488      	4.923996e-09 -1.145065e-12 -5.848909e-18
0.00489      	4.924440e-09 -1.155652e-12 -5.858233e-18
0.0049       	4.924879e-09 -1.166095e-12 -5.870910e-18
0.00491      	4.925312e-09 -1.176395e-12 -5.880573e-18
0.00492      	4.925739e-09 -1.186552e-12 -5.893158e-18
0.00493      	4.926160e-09 -1.196538e-12 -5.902635e-18
0.00494      	4.926575e-09 -1.206353e-12 -5.915145e-18
0.00495      	4.926985e-09 -1.215955e-12 -5.924459e-18
0.00496      	4.927389e-09 -1.225391e-12 -5.937200e-18
0.00497      	4.927787e-09 -1.234593e-12 -5.946559e-18
0.00498      	4.928180e-09 -1.243588e-12 -5.959027e-18
0.00499      	4.928568e-09 -1.252332e-12 -5.968214e-18
0.005        	4.928950e-09 -1.260854e-12 -5.980677e-18
0.00501      	4.929327e-09 -1.269090e-12 -5.989480e-18
0.00502      	4.929699e-09 -1.277090e-12 -6.002292e-18
0.00503      	4.930066e-09 -1.284797e-12 -6.011202e-18
0.00504      	4.930427e-09 -1.292239e-12 -6.023766e-18
0.00505      	4.930784e-09 -1.299376e-12 -6.032610e-18
0.00506      	4.931135e-09 -1.306232e-12 -6.045066e-18
0.00507      	4.931482e-09 -1.312769e-12 -6.053942e-18
0.00508      	4.931824e-09 -1.319010e-12 -6.066669e-18
0.00509      	4.932161e-09 -1.324911e-12 -6.074887e-18
0.0051       	4.932494e-09 -1.330515e-12 -6.087499e-18
0.00511      	4.932821e-09 -1.335768e-12 -6.095932e-18
0.00512      	4.933145e-09 -1.340713e-12 -6.108382e-18
0.00513      	4.933463e-09 -1.345305e-12 -6.116817e-18
0.00514      	4.933778e-09 -1.349583e-12 -6.129543e-18
0.00515      	4.934087e-09 -1.353499e-12 -6.137197e-18
0.00516      	4.934393e-09 -1.357101e-12 -6.149829e-18
0.00517      	4.934694e-09 -1.360338e-12 -6.157686e-18
0.00518      	4.934991e-09 -1.363264e-12 -6.170181e-18
0.00519      	4.935284e-09 -1.365825e-12 -6.178085e-18
0.0052       	4.935572e-09 -1.368072e-12 -6.190860e-18
0.00521      	4.935857e-09 -1.369957e-12 -6.197938e-18
0.00522      	4.936138e-09 -1.371534e-12 -6.210513e-18
0.00523      	4.936414e-09 -1.372754e-12 -6.217948e-18
0.00524      	4.936687e-09 -1.373677e-12 -6.230358e-18
0.00525      	4.936956e-09 -1.374242e-12 -6.237341e-18
0.00526      	4.937221e-09 -1.374528e-12 -6.250112e-18
0.00527      	4.937482e-09 -1.374477e-12 -6.257076e-18
0.00528      	4.937739e-09 -1.374147e-12 -6.269416e-18
0.00529      	4.937993e-09 -1.373501e-12 -6.276548e-18
0.0053       	4.938243e-09 -1.372591e-12 -6.289254e-18
0.00531      	4.938490e-09 -1.371376e-12 -6.295435e-18
0.00532      	4.938733e-09 -1.369922e-12 -6.307803e-18
0.00533      	4.938973e-09 -1.368183e-12 -6.314469e-18
0.00534      	4.939209e-09 -1.366228e-12 -6.326642e-18
0.00535      	4.939442e-09 -1.363998e-12 -6.332789e-18
0.00536      	4.939671e-09 -1.361584e-12 -6.345334e-18
0.00537      	4.939898e-09 -1.358927e-12 -6.351586e-18
0.00538      	4.940121e-09 -1.356101e-12 -6.363729e-18
0.00539      	4.940340e-09 -1.353052e-12 -6.369497e-18
0.0054       	4.940557e-09 -1.349871e-12 -6.381463e-18
0.00541      	4.940770e-09 -1.346497e-12 -6.387670e-18
0.00542      	4.940981e-09 -1.343017e-12 -6.400173e-18
0.00543      	4.941188e-09 -1.339371e-12 -6.405327e-18
0.00544      	4.941392e-09 -1.335649e-12 -6.417531e-18
0.00545      	4.941594e-09 -1.331798e-12 -6.423089e-18
0.00546      	4.941792e-09 -1.327900e-12 -6.435838e-18
0.00547      	4.941988e-09 -1.323901e-12 -6.440301e-18
0.00548      	4.942181e-09 -1.319890e-12 -6.452707e-18
0.00549      	4.942371e-09 -1.315815e-12 -6.457686e-18
0.0055       	4.942558e-09 -1.311758e-12 -6.470593e-18