# Field minima and maxima
# Time       	field        	min          	location(min)	max          	location(max)
1.000000e-05	d            	-3.092297e-02	(-2.494627e-01 4.950089e-01 4.950000e-01)	2.491790e-01	(2.494627e-01 4.950089e-01 4.750000e-01)
1.000000e-05	D            	(1.163771e-06 -1.114089e-06 -3.670113e-08)	(-2.256927e-01 -4.838327e-01 -4.749997e-01)	(1.037400e-05 2.963383e-06 6.041498e-09)	(4.207020e-01 -2.194439e-01 -4.750042e-01)
2.000000e-05	d            	-3.190285e-02	(2.505373e-01 -4.991191e-03 2.950000e-01)	2.352167e-01	(-2.505373e-01 4.991191e-03 1.350000e-01)
2.000000e-05	D            	(2.282942e-06 -6.716808e-06 -4.782810e-09)	(-2.521152e-01 -4.329505e-01 -4.750000e-01)	(1.850022e-05 9.386056e-06 3.569750e-08)	(3.697336e-01 -2.240089e-01 -4.850021e-01)
3.000000e-05	d            	-3.067486e-02	(-2.494627e-01 4.950089e-01 4.950000e-01)	2.397707e-01	(2.494627e-01 4.950089e-01 4.750000e-01)
3.000000e-05	D            	(3.979025e-06 -1.110487e-05 -5.237092e-09)	(-2.502264e-01 -4.324428e-01 3.650000e-01)	(2.842498e-05 1.316628e-05 3.232948e-08)	(3.797298e-01 -2.230861e-01 -4.850018e-01)
